                                                                                     
                             WELCOME TO ABACUS v3.0                                  
                                                                                     
               'Atomic-orbital Based Ab-initio Computation at UStc'                  
                                                                                     
                     Website: http://abacus.ustc.edu.cn/                             
                                                                                     
    Version: Parallel, in development
    Processor Number is 2
    Start Time is Tue Dec  6 09:50:46 2022
                                                                                     
 ------------------------------------------------------------------------------------

 READING GENERAL INFORMATION
                           global_out_dir = OUT.ABACUS/
                           global_in_card = INPUT
                               pseudo_dir = 
                              orbital_dir = 
                                    DRANK = 1
                                    DSIZE = 2
                                   DCOLOR = 1
                                    GRANK = 1
                                    GSIZE = 1
 The esolver type has been set to : ksdft_lcao




 >>>>>>>>>>>>>>>>>>>>>>>>>>>>>>>>>>>>>>>>>>>>>>>>>>>>>>>>>>>>>>>>>>>>>>
 |                                                                    |
 | Reading atom information in unitcell:                              |
 | From the input file and the structure file we know the number of   |
 | different elments in this unitcell, then we list the detail        |
 | information for each element, especially the zeta and polar atomic |
 | orbital number for each element. The total atom number is counted. |
 | We calculate the nearest atom distance for each atom and show the  |
 | Cartesian and Direct coordinates for each atom. We list the file   |
 | address for atomic orbitals. The volume and the lattice vectors    |
 | in real and reciprocal space is also shown.                        |
 |                                                                    |
 <<<<<<<<<<<<<<<<<<<<<<<<<<<<<<<<<<<<<<<<<<<<<<<<<<<<<<<<<<<<<<<<<<<<<<




 READING UNITCELL INFORMATION
                                    ntype = 3
                 atom label for species 1 = Pb
                 atom label for species 2 = Ti
                 atom label for species 3 = O
                  lattice constant (Bohr) = 1.88973
              lattice constant (Angstrom) = 1

 READING ATOM TYPE 1
                               atom label = Pb
                      L=0, number of zeta = 2
                      L=1, number of zeta = 2
                      L=2, number of zeta = 2
             number of atom for this type = 1
                      start magnetization = FALSE

 READING ATOM TYPE 2
                               atom label = Ti
                      L=0, number of zeta = 4
                      L=1, number of zeta = 2
                      L=2, number of zeta = 2
                      L=3, number of zeta = 1
             number of atom for this type = 1
                      start magnetization = FALSE

 READING ATOM TYPE 3
                               atom label = O
                      L=0, number of zeta = 2
                      L=1, number of zeta = 2
                      L=2, number of zeta = 1
             number of atom for this type = 3
                      start magnetization = FALSE
                      start magnetization = FALSE
                      start magnetization = FALSE

                        TOTAL ATOM NUMBER = 5

 DIRECT COORDINATES
         atom                   x                   y                   z                 mag                  vx                  vy                  vz
     taud_Pb1                   0                   0                   0                   0                   0                   0                   0
     taud_Ti1                 0.5                 0.5               0.556                   0                   0                   0                   0
      taud_O1                 0.5                 0.5               0.195                   0                   0                   0                   0
      taud_O2                   0                 0.5               0.671                   0                   0                   0                   0
      taud_O3                 0.5                   0               0.671                   0                   0                   0                   0


 READING ORBITAL FILE NAMES FOR LCAO
 orbital file: /sharedata01/apps/abacus/3.0.1/tests/PP_ORB/./Pb_gga_10au_100Ry_2s2p2d.orb
 orbital file: /sharedata01/apps/abacus/3.0.1/tests/PP_ORB/./Ti_gga_10au_100Ry_4s2p2d1f.orb
 orbital file: /sharedata01/apps/abacus/3.0.1/tests/PP_ORB/./O_gga_10au_100Ry_2s2p1d.orb

                          Volume (Bohr^3) = 475.602
                             Volume (A^3) = 70.4768

 Lattice vectors: (Cartesian coordinate: in unit of a_0)
               +3.837                  +0                  +0
                   +0              +3.837                  +0
                   +0                  +0              +4.787
 Reciprocal vectors: (Cartesian coordinate: in unit of 2 pi/a_0)
             +0.26062                  +0                  +0
                   +0            +0.26062                  +0
                   +0                  -0           +0.208899




 >>>>>>>>>>>>>>>>>>>>>>>>>>>>>>>>>>>>>>>>>>>>>>>>>>>>>>>>>>>>>>>>>>>>>>
 |                                                                    |
 | Reading pseudopotentials files:                                    |
 | The pseudopotential file is in UPF format. The 'NC' indicates that |
 | the type of pseudopotential is 'norm conserving'. Functional of    |
 | exchange and correlation is decided by 4 given parameters in UPF   |
 | file.  We also read in the 'core correction' if there exists.      |
 | Also we can read the valence electrons number and the maximal      |
 | angular momentum used in this pseudopotential. We also read in the |
 | trail wave function, trail atomic density and local-pseudopotential|
 | on logrithmic grid. The non-local pseudopotential projector is also|
 | read in if there is any.                                           |
 |                                                                    |
 <<<<<<<<<<<<<<<<<<<<<<<<<<<<<<<<<<<<<<<<<<<<<<<<<<<<<<<<<<<<<<<<<<<<<<




                PAO radial cut off (Bohr) = 15

 Read in pseudopotential file is Pb_ONCV_PBE-1.0.upf
                     pseudopotential type = NC
          exchange-correlation functional = PBE
                 nonlocal core correction = 0
                        valence electrons = 14
                                     lmax = 3
                           number of zeta = 0
                     number of projectors = 8
                           L of projector = 0
                           L of projector = 0
                           L of projector = 1
                           L of projector = 1
                           L of projector = 2
                           L of projector = 2
                           L of projector = 3
                           L of projector = 3
                PAO radial cut off (Bohr) = 15

 Read in pseudopotential file is Ti_ONCV_PBE-1.0.upf
                     pseudopotential type = NC
          exchange-correlation functional = PBE
                 nonlocal core correction = 0
                        valence electrons = 12
                                     lmax = 2
                           number of zeta = 0
                     number of projectors = 6
                           L of projector = 0
                           L of projector = 0
                           L of projector = 1
                           L of projector = 1
                           L of projector = 2
                           L of projector = 2
                PAO radial cut off (Bohr) = 15

 Read in pseudopotential file is O_ONCV_PBE-1.0.upf
                     pseudopotential type = NC
          exchange-correlation functional = PBE
                 nonlocal core correction = 0
                        valence electrons = 6
                                     lmax = 1
                           number of zeta = 0
                     number of projectors = 4
                           L of projector = 0
                           L of projector = 0
                           L of projector = 1
                           L of projector = 1
     initial pseudo atomic orbital number = 0
                                   NLOCAL = 84

%%%%%%%%%%%%%%%%%%%%%%%%%%%%%%%%%%%%%%%%%%%%%%%%%%%%%%%%%%%%%%%%%%%%%%%
 Warning: number valence electrons > 4 for Pb: [Xe] 4f14 5d10 6s2 6p2
 Warning: number valence electrons > 4 for Ti: [Ar] 3d2 4s2
 Please make sure the pseudopential file is what you need
%%%%%%%%%%%%%%%%%%%%%%%%%%%%%%%%%%%%%%%%%%%%%%%%%%%%%%%%%%%%%%%%%%%%%%%
                  




 >>>>>>>>>>>>>>>>>>>>>>>>>>>>>>>>>>>>>>>>>>>>>>>>>>>>>>>>>>>>>>>>>>>>>>
 |                                                                    |
 | Setup plane waves of charge/potential:                             |
 | Use the energy cutoff and the lattice vectors to generate the      |
 | dimensions of FFT grid. The number of FFT grid on each processor   |
 | is 'nrxx'. The number of plane wave basis in reciprocal space is   |
 | different for charege/potential and wave functions. We also set    |
 | the 'sticks' for the parallel of FFT. The number of plane waves    |
 | is 'npw' in each processor.                                        |
 <<<<<<<<<<<<<<<<<<<<<<<<<<<<<<<<<<<<<<<<<<<<<<<<<<<<<<<<<<<<<<<<<<<<<<





 SETUP THE PLANE WAVE BASIS
 energy cutoff for charge/potential (unit:Ry) = 200
          [fft grid for charge/potential] = 36, 36, 48
                      [fft grid division] = 2, 2, 2
      [big fft grid for charge/potential] = 18, 18, 24
                                     nbxx = 3888
                                     nrxx = 31104

 SETUP PLANE WAVES FOR CHARGE/POTENTIAL
                    number of plane waves = 22789
                         number of sticks = 845

 PARALLEL PW FOR CHARGE/POTENTIAL
     PROC   COLUMNS(POT)             PW
        1            423          11395
        2            422          11394
 --------------- sum -------------------
        2            845          22789
                            number of |g| = 1493
                                  max |g| = 18.0865
                                  min |g| = 0

 SETUP THE ELECTRONS NUMBER
            electron number of element Pb = 14
      total electron number of element Pb = 14
            electron number of element Ti = 12
      total electron number of element Ti = 12
             electron number of element O = 6
       total electron number of element O = 18
                           occupied bands = 22
                                   NLOCAL = 84
                                   NBANDS = 32
                                   NBANDS = 32
 DONE : SETUP UNITCELL Time : 0.0833281 (SEC)





 >>>>>>>>>>>>>>>>>>>>>>>>>>>>>>>>>>>>>>>>>>>>>>>>>>>>>>>>>>>>>>>>>>>>>>
 |                                                                    |
 | Setup K-points                                                     |
 | We setup the k-points according to input parameters.               |
 | The reduced k-points are set according to symmetry operations.     |
 | We treat the spin as another set of k-points.                      |
 |                                                                    |
 <<<<<<<<<<<<<<<<<<<<<<<<<<<<<<<<<<<<<<<<<<<<<<<<<<<<<<<<<<<<<<<<<<<<<<





 SETUP K-POINTS
                                    nspin = 1
                   Input type of k points = Monkhorst-Pack(Gamma)
                                   nkstot = 64
                               nkstot_ibz = 36
      IBZ             DirectX             DirectY             DirectZ              Weight    ibz2bz
        1                   0                   0                   0            0.015625         0
        2                0.75                   0                   0             0.03125         1
        3                 0.5                   0                   0            0.015625         2
        4                   0                0.75                   0             0.03125         4
        5                0.75                0.75                   0             0.03125         5
        6                 0.5                0.75                   0             0.03125         6
        7                0.25                0.75                   0             0.03125         7
        8                   0                 0.5                   0            0.015625         8
        9                0.75                 0.5                   0             0.03125         9
       10                 0.5                 0.5                   0            0.015625        10
       11                   0                   0                0.75             0.03125        16
       12                0.75                   0                0.75             0.03125        17
       13                 0.5                   0                0.75             0.03125        18
       14                0.25                   0                0.75             0.03125        19
       15                   0                0.75                0.75             0.03125        20
       16                0.75                0.75                0.75             0.03125        21
       17                 0.5                0.75                0.75             0.03125        22
       18                0.25                0.75                0.75             0.03125        23
       19                   0                 0.5                0.75             0.03125        24
       20                0.75                 0.5                0.75             0.03125        25
       21                 0.5                 0.5                0.75             0.03125        26
       22                0.25                 0.5                0.75             0.03125        27
       23                   0                0.25                0.75             0.03125        28
       24                0.75                0.25                0.75             0.03125        29
       25                 0.5                0.25                0.75             0.03125        30
       26                0.25                0.25                0.75             0.03125        31
       27                   0                   0                 0.5            0.015625        32
       28                0.75                   0                 0.5             0.03125        33
       29                 0.5                   0                 0.5            0.015625        34
       30                   0                0.75                 0.5             0.03125        36
       31                0.75                0.75                 0.5             0.03125        37
       32                 0.5                0.75                 0.5             0.03125        38
       33                0.25                0.75                 0.5             0.03125        39
       34                   0                 0.5                 0.5            0.015625        40
       35                0.75                 0.5                 0.5             0.03125        41
       36                 0.5                 0.5                 0.5            0.015625        42
                               nkstot now = 36

  KPOINTS            DIRECT_X            DIRECT_Y            DIRECT_Z              WEIGHT
        1                   0                   0                   0            0.015625
        2                0.75                   0                   0             0.03125
        3                 0.5                   0                   0            0.015625
        4                   0                0.75                   0             0.03125
        5                0.75                0.75                   0             0.03125
        6                 0.5                0.75                   0             0.03125
        7                0.25                0.75                   0             0.03125
        8                   0                 0.5                   0            0.015625
        9                0.75                 0.5                   0             0.03125
       10                 0.5                 0.5                   0            0.015625
       11                   0                   0                0.75             0.03125
       12                0.75                   0                0.75             0.03125
       13                 0.5                   0                0.75             0.03125
       14                0.25                   0                0.75             0.03125
       15                   0                0.75                0.75             0.03125
       16                0.75                0.75                0.75             0.03125
       17                 0.5                0.75                0.75             0.03125
       18                0.25                0.75                0.75             0.03125
       19                   0                 0.5                0.75             0.03125
       20                0.75                 0.5                0.75             0.03125
       21                 0.5                 0.5                0.75             0.03125
       22                0.25                 0.5                0.75             0.03125
       23                   0                0.25                0.75             0.03125
       24                0.75                0.25                0.75             0.03125
       25                 0.5                0.25                0.75             0.03125
       26                0.25                0.25                0.75             0.03125
       27                   0                   0                 0.5            0.015625
       28                0.75                   0                 0.5             0.03125
       29                 0.5                   0                 0.5            0.015625
       30                   0                0.75                 0.5             0.03125
       31                0.75                0.75                 0.5             0.03125
       32                 0.5                0.75                 0.5             0.03125
       33                0.25                0.75                 0.5             0.03125
       34                   0                 0.5                 0.5            0.015625
       35                0.75                 0.5                 0.5             0.03125
       36                 0.5                 0.5                 0.5            0.015625

           k-point number in this process = 36
       minimum distributed K point number = 36

  KPOINTS         CARTESIAN_X         CARTESIAN_Y         CARTESIAN_Z              WEIGHT
        1                   0                   0                   0             0.03125
        2            0.195465                   0                   0              0.0625
        3             0.13031                   0                   0             0.03125
        4                   0            0.195465                   0              0.0625
        5            0.195465            0.195465                   0              0.0625
        6             0.13031            0.195465                   0              0.0625
        7           0.0651551            0.195465                   0              0.0625
        8                   0             0.13031                   0             0.03125
        9            0.195465             0.13031                   0              0.0625
       10             0.13031             0.13031                   0             0.03125
       11                   0                   0            0.156674              0.0625
       12            0.195465                   0            0.156674              0.0625
       13             0.13031                   0            0.156674              0.0625
       14           0.0651551                   0            0.156674              0.0625
       15                   0            0.195465            0.156674              0.0625
       16            0.195465            0.195465            0.156674              0.0625
       17             0.13031            0.195465            0.156674              0.0625
       18           0.0651551            0.195465            0.156674              0.0625
       19                   0             0.13031            0.156674              0.0625
       20            0.195465             0.13031            0.156674              0.0625
       21             0.13031             0.13031            0.156674              0.0625
       22           0.0651551             0.13031            0.156674              0.0625
       23                   0           0.0651551            0.156674              0.0625
       24            0.195465           0.0651551            0.156674              0.0625
       25             0.13031           0.0651551            0.156674              0.0625
       26           0.0651551           0.0651551            0.156674              0.0625
       27                   0                   0             0.10445             0.03125
       28            0.195465                   0             0.10445              0.0625
       29             0.13031                   0             0.10445             0.03125
       30                   0            0.195465             0.10445              0.0625
       31            0.195465            0.195465             0.10445              0.0625
       32             0.13031            0.195465             0.10445              0.0625
       33           0.0651551            0.195465             0.10445              0.0625
       34                   0             0.13031             0.10445             0.03125
       35            0.195465             0.13031             0.10445              0.0625
       36             0.13031             0.13031             0.10445             0.03125

  KPOINTS            DIRECT_X            DIRECT_Y            DIRECT_Z              WEIGHT
        1                   0                   0                   0             0.03125
        2                0.75                   0                   0              0.0625
        3                 0.5                   0                   0             0.03125
        4                   0                0.75                   0              0.0625
        5                0.75                0.75                   0              0.0625
        6                 0.5                0.75                   0              0.0625
        7                0.25                0.75                   0              0.0625
        8                   0                 0.5                   0             0.03125
        9                0.75                 0.5                   0              0.0625
       10                 0.5                 0.5                   0             0.03125
       11                   0                   0                0.75              0.0625
       12                0.75                   0                0.75              0.0625
       13                 0.5                   0                0.75              0.0625
       14                0.25                   0                0.75              0.0625
       15                   0                0.75                0.75              0.0625
       16                0.75                0.75                0.75              0.0625
       17                 0.5                0.75                0.75              0.0625
       18                0.25                0.75                0.75              0.0625
       19                   0                 0.5                0.75              0.0625
       20                0.75                 0.5                0.75              0.0625
       21                 0.5                 0.5                0.75              0.0625
       22                0.25                 0.5                0.75              0.0625
       23                   0                0.25                0.75              0.0625
       24                0.75                0.25                0.75              0.0625
       25                 0.5                0.25                0.75              0.0625
       26                0.25                0.25                0.75              0.0625
       27                   0                   0                 0.5             0.03125
       28                0.75                   0                 0.5              0.0625
       29                 0.5                   0                 0.5             0.03125
       30                   0                0.75                 0.5              0.0625
       31                0.75                0.75                 0.5              0.0625
       32                 0.5                0.75                 0.5              0.0625
       33                0.25                0.75                 0.5              0.0625
       34                   0                 0.5                 0.5             0.03125
       35                0.75                 0.5                 0.5              0.0625
       36                 0.5                 0.5                 0.5             0.03125
 DONE : INIT K-POINTS Time : 0.0863764 (SEC)





 >>>>>>>>>>>>>>>>>>>>>>>>>>>>>>>>>>>>>>>>>>>>>>>>>>>>>>>>>>>>>>>>>>>>>>
 |                                                                    |
 | Setup numerical orbitals:                                          |
 | This part setup: numerical atomic orbitals, non-local projectors   |
 | and neutral potential (1D). The atomic orbitals information        |
 | including the radius, angular momentum and zeta number.            |
 | The neutral potential is the sum of local part of pseudopotential  |
 | and potential given by atomic charge, they will cancel out beyond  |
 | a certain radius cutoff, because the Z/r character.                |
 |                                                                    |
 <<<<<<<<<<<<<<<<<<<<<<<<<<<<<<<<<<<<<<<<<<<<<<<<<<<<<<<<<<<<<<<<<<<<<<





 SETUP ONE DIMENSIONAL ORBITALS/POTENTIAL
                        delta k  (1/Bohr) = 0.01
                        delta r    (Bohr) = 0.01
                        dr_uniform (Bohr) = 0.001
                        rmax       (Bohr) = 30
                                    kmesh = 711
      ORBITAL  L  N      nr      dr    RCUT  CHECK_UNIT    NEW_UNIT
            1  0  0    1001    0.01      10           1           1
            2  0  1    1001    0.01      10           1           1
            3  1  0    1001    0.01      10           1           1
            4  1  1    1001    0.01      10           1           1
            5  2  0    1001    0.01      10           1           1
            6  2  1    1001    0.01      10           1           1
      ORBITAL  L  N      nr      dr    RCUT  CHECK_UNIT    NEW_UNIT
            1  0  0    1001    0.01      10           1           1
            2  0  1    1001    0.01      10           1           1
            3  0  2    1001    0.01      10           1           1
            4  0  3    1001    0.01      10           1           1
            5  1  0    1001    0.01      10           1           1
            6  1  1    1001    0.01      10           1           1
            7  2  0    1001    0.01      10           1           1
            8  2  1    1001    0.01      10           1           1
            9  3  0    1001    0.01      10           1           1
      ORBITAL  L  N      nr      dr    RCUT  CHECK_UNIT    NEW_UNIT
            1  0  0    1001    0.01      10           1           1
            2  0  1    1001    0.01      10           1           1
            3  1  0    1001    0.01      10           1           1
            4  1  1    1001    0.01      10           1           1
            5  2  0    1001    0.01      10           1           1
 SET NONLOCAL PSEUDOPOTENTIAL PROJECTORS
 SET NONLOCAL PSEUDOPOTENTIAL PROJECTORS
 SET NONLOCAL PSEUDOPOTENTIAL PROJECTORS
 max number of nonlocal projetors among all species is 8

 SETUP THE TWO-CENTER INTEGRATION TABLES

 SETUP THE DIVISION OF H/S MATRIX
 divide the H&S matrix using 2D block algorithms.
                                     nb2d = 1
                  trace_loc_row dimension = 84
                  trace_loc_col dimension = 84
                                     nloc = 3528
 DONE : INIT CHARGE Time : 3.73 (SEC)

                                 init_chg = atomic
 DONE : INIT POTENTIAL Time : 3.75698 (SEC)


 -------------------------------------------
 SELF-CONSISTENT
 -------------------------------------------




 >>>>>>>>>>>>>>>>>>>>>>>>>>>>>>>>>>>>>>>>>>>>>>>>>>>>>>>>>>>>>>>>>>>>>>
 |                                                                    |
 | Search adjacent atoms:                                             |
 | Set the adjacent atoms for each atom and set the periodic boundary |
 | condition for the atoms on real space FFT grid. For k-dependent    |
 | algorithm, we also need to set the sparse H and S matrix element   |
 | for each atom.                                                     |
 |                                                                    |
 <<<<<<<<<<<<<<<<<<<<<<<<<<<<<<<<<<<<<<<<<<<<<<<<<<<<<<<<<<<<<<<<<<<<<<





 SETUP SEARCHING RADIUS FOR PROGRAM TO SEARCH ADJACENT ATOMS
                  longest orb rcut (Bohr) = 10
   longest nonlocal projector rcut (Bohr) = 3.68
              searching radius is (Bohr)) = 27.4
         searching radius unit is (Bohr)) = 1.89

 SETUP EXTENDED REAL SPACE GRID FOR GRID INTEGRATION
                        [real space grid] = 36, 36, 48
               [big cell numbers in grid] = 18, 18, 24
           [meshcell numbers in big cell] = 2, 2, 2
                      [extended fft grid] = 25, 25, 27
              [dimension of extened grid] = 69, 69, 79
                            UnitCellTotal = 125
              Atom number in sub-FFT-grid = 5
    Local orbitals number in sub-FFT-grid = 84
                                ParaV.nnr = 474919
                                     nnrg = 506888
 Memory of pvpR : 3.87 MB
                                nnrg_last = 0
                                 nnrg_now = 506888

 LCAO ALGORITHM --------------- ION=   1  ELEC=   1--------------------------------

 Density error is 0.150756810306

       Energy                       Rydberg                            eV
   E_KohnSham                -323.460822622                -4400.91026743
     E_Harris                -325.178572727                -4424.28145659
      E_Fermi               +0.568003323284                 +7.7280816796

 LCAO ALGORITHM --------------- ION=   1  ELEC=   2--------------------------------
 Memory of pvpR : 3.86724853516 MB

 Density error is 0.343774358786

       Energy                       Rydberg                            eV
   E_KohnSham                -320.484733826                -4360.41850204
     E_Harris                -326.820891816                -4446.62635414
      E_Fermi               +0.811363227668                 +11.039163044

 LCAO ALGORITHM --------------- ION=   1  ELEC=   3--------------------------------
 Memory of pvpR : 3.86724853516 MB

 Density error is 0.0705683894593

       Energy                       Rydberg                            eV
   E_KohnSham                -324.612335033                -4416.57739753
     E_Harris                -324.893031882                 -4420.3964741
      E_Fermi               +0.711771845423                +9.68415277372

 LCAO ALGORITHM --------------- ION=   1  ELEC=   4--------------------------------
 Memory of pvpR : 3.86724853516 MB

 Density error is 0.0410293804405

       Energy                       Rydberg                            eV
   E_KohnSham                -324.619194622                -4416.67072703
     E_Harris                 -324.66768902                -4417.33052717
      E_Fermi               +0.681986437196                +9.27890150459

 LCAO ALGORITHM --------------- ION=   1  ELEC=   5--------------------------------
 Memory of pvpR : 3.86724853516 MB

 Density error is 0.0300434902736

       Energy                       Rydberg                            eV
   E_KohnSham                -324.576919918                -4416.09555017
     E_Harris                -324.629257367                 -4416.8076377
      E_Fermi               +0.678663036144                +9.23368431354

 LCAO ALGORITHM --------------- ION=   1  ELEC=   6--------------------------------
 Memory of pvpR : 3.86724853516 MB

 Density error is 0.00831347047891

       Energy                       Rydberg                            eV
   E_KohnSham                -324.590625092                -4416.28201863
     E_Harris                -324.595268058                -4416.34518943
      E_Fermi               +0.693663757061                +9.43777959212

 LCAO ALGORITHM --------------- ION=   1  ELEC=   7--------------------------------
 Memory of pvpR : 3.86724853516 MB

 Density error is 0.00318970322022

       Energy                       Rydberg                            eV
   E_KohnSham                -324.593007949                -4416.31443907
     E_Harris                -324.593547056                -4416.32177399
      E_Fermi               +0.687990195791                 +9.3605868309

 LCAO ALGORITHM --------------- ION=   1  ELEC=   8--------------------------------
 Memory of pvpR : 3.86724853516 MB

 Density error is 0.00154438711189

       Energy                       Rydberg                            eV
   E_KohnSham                -324.593046399                 -4416.3149622
     E_Harris                -324.593172287                  -4416.316675
      E_Fermi               +0.688732466004                +9.37068593524

 LCAO ALGORITHM --------------- ION=   1  ELEC=   9--------------------------------
 Memory of pvpR : 3.86724853516 MB

 Density error is 0.000547464144528

       Energy                       Rydberg                            eV
   E_KohnSham                -324.593061449                -4416.31516698
     E_Harris                -324.593076926                -4416.31537754
      E_Fermi               +0.688628479512                +9.36927112644

 LCAO ALGORITHM --------------- ION=   1  ELEC=  10--------------------------------
 Memory of pvpR : 3.86724853516 MB

 Density error is 0.000149858035195

       Energy                       Rydberg                            eV
   E_KohnSham                -324.593064267                -4416.31520531
     E_Harris                -324.593065649                -4416.31522411
      E_Fermi               +0.688535776573                +9.36800983825

 LCAO ALGORITHM --------------- ION=   1  ELEC=  11--------------------------------
 Memory of pvpR : 3.86724853516 MB

 Density error is 3.53351855213e-05

       Energy                       Rydberg                            eV
   E_KohnSham                -324.593064412                -4416.31520728
     E_Harris                -324.593064502                 -4416.3152085
      E_Fermi               +0.688517274329                 +9.3677581023

 LCAO ALGORITHM --------------- ION=   1  ELEC=  12--------------------------------
 Memory of pvpR : 3.86724853516 MB

 Density error is 7.71753789471e-06

       Energy                       Rydberg                            eV
   E_KohnSham                -324.593064343                -4416.31520635
     E_Harris                -324.593064348                -4416.31520641
      E_Fermi               +0.688500980453                +9.36753641275

 LCAO ALGORITHM --------------- ION=   1  ELEC=  13--------------------------------
 Memory of pvpR : 3.86724853516 MB

 Density error is 2.54501767123e-06

       Energy                       Rydberg                            eV
   E_KohnSham                -324.593064366                -4416.31520666
     E_Harris                -324.593064367                -4416.31520667
      E_Fermi               +0.688505845277                +9.36760260208

 LCAO ALGORITHM --------------- ION=   1  ELEC=  14--------------------------------
 Memory of pvpR : 3.86724853516 MB

 Density error is 1.19108183898e-07

       Energy                       Rydberg                            eV
   E_KohnSham                 -324.59306436                -4416.31520658
     E_Harris                 -324.59306436                -4416.31520658
      E_Fermi               +0.688504157875                +9.36757964379

 LCAO ALGORITHM --------------- ION=   1  ELEC=  15--------------------------------
 Memory of pvpR : 3.86724853516 MB

 Density error is 3.3007544748e-08

       Energy                       Rydberg                            eV
   E_KohnSham                 -324.59306436                -4416.31520657
     E_Harris                 -324.59306436                -4416.31520657
       E_band                -16.0187250499                -217.945935375
   E_one_elec                -102.575263937                 -1395.6080634
    E_Hartree                +75.3828602429                +1025.63643084
         E_xc                -49.3983878639                -672.099546963
      E_Ewald                -248.002272802                -3374.24402706
      E_demet                            +0                            +0
      E_descf                            +0                            +0
        E_exx                            +0                            +0
      E_Fermi                +0.68850421331                +9.36758039802

 charge density convergence is achieved
 final etot is -4416.31520657 eV

 STATE ENERGY(eV) AND OCCUPATIONS    NSPIN == 1
 1/36 kpoint (Cartesian) = 0 0 0 (0 pws)
       1       -47.4726      0.0312500
       2       -23.8436      0.0312500
       3       -23.6300      0.0312500
       4       -23.6300      0.0312500
       5       -8.29077      0.0312500
       6       -7.40301      0.0312500
       7       -7.03899      0.0312500
       8       -6.30919      0.0312500
       9       -6.30919      0.0312500
      10       -6.28168      0.0312500
      11       -6.22396      0.0312500
      12       -5.99219      0.0312500
      13        2.68308      0.0312500
      14        5.58658      0.0312500
      15        5.58658      0.0312500
      16        6.40887      0.0312500
      17        6.77118      0.0312500
      18        6.77118      0.0312500
      19        7.01134      0.0312500
      20        7.26955      0.0312500
      21        8.25876      0.0312500
      22        8.25876      0.0312500
      23        11.4227        0.00000
      24        13.3829        0.00000
      25        13.3829        0.00000
      26        13.9924        0.00000
      27        14.4811        0.00000
      28        14.6345        0.00000
      29        16.7078        0.00000
      30        16.7078        0.00000
      31        18.7721        0.00000
      32        21.1581        0.00000

 2/36 kpoint (Cartesian) = 0.195465 0.00000 0.00000 (0 pws)
       1       -47.4724      0.0625000
       2       -23.8410      0.0625000
       3       -23.6622      0.0625000
       4       -23.6286      0.0625000
       5       -8.06544      0.0625000
       6       -7.41841      0.0625000
       7       -7.04511      0.0625000
       8       -6.33947      0.0625000
       9       -6.30566      0.0625000
      10       -6.30285      0.0625000
      11       -6.14763      0.0625000
      12       -5.92135      0.0625000
      13        2.50634      0.0625000
      14        5.26842      0.0625000
      15        5.79846      0.0625000
      16        5.80028      0.0625000
      17        6.80553      0.0625000
      18        6.84821      0.0625000
      19        7.33165      0.0625000
      20        7.43813      0.0625000
      21        7.63783      0.0625000
      22        8.38109      0.0625000
      23        12.0790        0.00000
      24        12.4774        0.00000
      25        13.4487        0.00000
      26        13.9373        0.00000
      27        14.3329        0.00000
      28        14.7448        0.00000
      29        15.5643        0.00000
      30        16.4435        0.00000
      31        19.8239        0.00000
      32        21.8947        0.00000

 3/36 kpoint (Cartesian) = 0.130310 0.00000 0.00000 (0 pws)
       1       -47.4725      0.0312500
       2       -23.8387      0.0312500
       3       -23.6941      0.0312500
       4       -23.6272      0.0312500
       5       -7.82997      0.0312500
       6       -7.40630      0.0312500
       7       -7.06971      0.0312500
       8       -6.33862      0.0312500
       9       -6.32390      0.0312500
      10       -6.30208      0.0312500
      11       -6.08675      0.0312500
      12       -5.88135      0.0312500
      13        2.33603      0.0312500
      14        5.07904      0.0312500
      15        5.93647      0.0312500
      16        6.26185      0.0312500
      17        6.35604      0.0312500
      18        6.51301      0.0312500
      19        6.89236      0.0312500
      20        7.22285      0.0312500
      21        7.28878      0.0312500
      22        9.36758      0.0312500
      23        12.3650        0.00000
      24        12.6168        0.00000
      25        12.8904        0.00000
      26        13.5097        0.00000
      27        13.8081        0.00000
      28        14.9553        0.00000
      29        15.3882        0.00000
      30        16.1720        0.00000
      31        20.9664        0.00000
      32        22.4152        0.00000

 4/36 kpoint (Cartesian) = 0.00000 0.195465 0.00000 (0 pws)
       1       -47.4724      0.0625000
       2       -23.8410      0.0625000
       3       -23.6622      0.0625000
       4       -23.6286      0.0625000
       5       -8.06544      0.0625000
       6       -7.41841      0.0625000
       7       -7.04511      0.0625000
       8       -6.33947      0.0625000
       9       -6.30566      0.0625000
      10       -6.30285      0.0625000
      11       -6.14763      0.0625000
      12       -5.92135      0.0625000
      13        2.50634      0.0625000
      14        5.26842      0.0625000
      15        5.79846      0.0625000
      16        5.80028      0.0625000
      17        6.80553      0.0625000
      18        6.84821      0.0625000
      19        7.33165      0.0625000
      20        7.43813      0.0625000
      21        7.63783      0.0625000
      22        8.38109      0.0625000
      23        12.0790        0.00000
      24        12.4774        0.00000
      25        13.4487        0.00000
      26        13.9373        0.00000
      27        14.3329        0.00000
      28        14.7448        0.00000
      29        15.5643        0.00000
      30        16.4435        0.00000
      31        19.8239        0.00000
      32        21.8947        0.00000

 5/36 kpoint (Cartesian) = 0.195465 0.195465 0.00000 (0 pws)
       1       -47.4716      0.0625000
       2       -23.8383      0.0625000
       3       -23.6608      0.0625000
       4       -23.6603      0.0625000
       5       -7.86064      0.0625000
       6       -7.43301      0.0625000
       7       -7.09998      0.0625000
       8       -6.32777      0.0625000
       9       -6.30811      0.0625000
      10       -6.26791      0.0625000
      11       -6.02781      0.0625000
      12       -5.89113      0.0625000
      13        2.34323      0.0625000
      14        5.23620      0.0625000
      15        5.52565      0.0625000
      16        5.94620      0.0625000
      17        6.43163      0.0625000
      18        6.43907      0.0625000
      19        6.96042      0.0625000
      20        7.51564      0.0625000
      21        8.31303      0.0625000
      22        8.44970      0.0625000
      23        12.1682        0.00000
      24        12.4841        0.00000
      25        12.8272        0.00000
      26        13.7631        0.00000
      27        14.3289        0.00000
      28        14.9524        0.00000
      29        15.5475        0.00000
      30        15.6876        0.00000
      31        20.6222        0.00000
      32        22.2990        0.00000

 6/36 kpoint (Cartesian) = 0.130310 0.195465 0.00000 (0 pws)
       1       -47.4709      0.0625000
       2       -23.8357      0.0625000
       3       -23.6924      0.0625000
       4       -23.6589      0.0625000
       5       -7.65390      0.0625000
       6       -7.43687      0.0625000
       7       -7.15528      0.0625000
       8       -6.31418      0.0625000
       9       -6.28090      0.0625000
      10       -6.20271      0.0625000
      11       -5.97218      0.0625000
      12       -5.86115      0.0625000
      13        2.16817      0.0625000
      14        5.10717      0.0625000
      15        5.61619      0.0625000
      16        5.65192      0.0625000
      17        6.45610      0.0625000
      18        6.46863      0.0625000
      19        6.75187      0.0625000
      20        7.14595      0.0625000
      21        8.34678      0.0625000
      22        8.55590      0.0625000
      23        12.4071        0.00000
      24        12.5393        0.00000
      25        12.8619        0.00000
      26        13.1527        0.00000
      27        13.9726        0.00000
      28        15.1384        0.00000
      29        15.5623        0.00000
      30        15.6135        0.00000
      31        21.7167        0.00000
      32        21.9198        0.00000

 7/36 kpoint (Cartesian) = 0.0651551 0.195465 0.00000 (0 pws)
       1       -47.4716      0.0625000
       2       -23.8383      0.0625000
       3       -23.6608      0.0625000
       4       -23.6603      0.0625000
       5       -7.86064      0.0625000
       6       -7.43301      0.0625000
       7       -7.09998      0.0625000
       8       -6.32777      0.0625000
       9       -6.30811      0.0625000
      10       -6.26791      0.0625000
      11       -6.02781      0.0625000
      12       -5.89113      0.0625000
      13        2.34323      0.0625000
      14        5.23620      0.0625000
      15        5.52565      0.0625000
      16        5.94620      0.0625000
      17        6.43163      0.0625000
      18        6.43907      0.0625000
      19        6.96042      0.0625000
      20        7.51564      0.0625000
      21        8.31303      0.0625000
      22        8.44970      0.0625000
      23        12.1682        0.00000
      24        12.4841        0.00000
      25        12.8272        0.00000
      26        13.7631        0.00000
      27        14.3289        0.00000
      28        14.9524        0.00000
      29        15.5475        0.00000
      30        15.6876        0.00000
      31        20.6222        0.00000
      32        22.2990        0.00000

 8/36 kpoint (Cartesian) = 0.00000 0.130310 0.00000 (0 pws)
       1       -47.4725      0.0312500
       2       -23.8387      0.0312500
       3       -23.6941      0.0312500
       4       -23.6272      0.0312500
       5       -7.82997      0.0312500
       6       -7.40630      0.0312500
       7       -7.06971      0.0312500
       8       -6.33862      0.0312500
       9       -6.32390      0.0312500
      10       -6.30208      0.0312500
      11       -6.08675      0.0312500
      12       -5.88135      0.0312500
      13        2.33603      0.0312500
      14        5.07904      0.0312500
      15        5.93647      0.0312500
      16        6.26185      0.0312500
      17        6.35604      0.0312500
      18        6.51301      0.0312500
      19        6.89236      0.0312500
      20        7.22285      0.0312500
      21        7.28878      0.0312500
      22        9.36758      0.0312500
      23        12.3650        0.00000
      24        12.6168        0.00000
      25        12.8904        0.00000
      26        13.5097        0.00000
      27        13.8081        0.00000
      28        14.9553        0.00000
      29        15.3882        0.00000
      30        16.1720        0.00000
      31        20.9664        0.00000
      32        22.4152        0.00000

 9/36 kpoint (Cartesian) = 0.195465 0.130310 0.00000 (0 pws)
       1       -47.4709      0.0625000
       2       -23.8357      0.0625000
       3       -23.6924      0.0625000
       4       -23.6589      0.0625000
       5       -7.65390      0.0625000
       6       -7.43687      0.0625000
       7       -7.15528      0.0625000
       8       -6.31418      0.0625000
       9       -6.28090      0.0625000
      10       -6.20271      0.0625000
      11       -5.97218      0.0625000
      12       -5.86115      0.0625000
      13        2.16817      0.0625000
      14        5.10717      0.0625000
      15        5.61619      0.0625000
      16        5.65192      0.0625000
      17        6.45610      0.0625000
      18        6.46863      0.0625000
      19        6.75187      0.0625000
      20        7.14595      0.0625000
      21        8.34678      0.0625000
      22        8.55590      0.0625000
      23        12.4071        0.00000
      24        12.5393        0.00000
      25        12.8619        0.00000
      26        13.1527        0.00000
      27        13.9726        0.00000
      28        15.1384        0.00000
      29        15.5623        0.00000
      30        15.6135        0.00000
      31        21.7167        0.00000
      32        21.9198        0.00000

 10/36 kpoint (Cartesian) = 0.130310 0.130310 0.00000 (0 pws)
       1       -47.4695      0.0312500
       2       -23.8328      0.0312500
       3       -23.6904      0.0312500
       4       -23.6904      0.0312500
       5       -7.47192      0.0312500
       6       -7.47192      0.0312500
       7       -7.23568      0.0312500
       8       -6.27411      0.0312500
       9       -6.24995      0.0312500
      10       -6.05137      0.0312500
      11       -5.87124      0.0312500
      12       -5.87124      0.0312500
      13        1.92190      0.0312500
      14        4.87502      0.0312500
      15        5.72703      0.0312500
      16        6.10683      0.0312500
      17        6.10683      0.0312500
      18        6.69872      0.0312500
      19        6.69872      0.0312500
      20        6.91027      0.0312500
      21        7.11475      0.0312500
      22        9.08929      0.0312500
      23        12.2184        0.00000
      24        12.7850        0.00000
      25        12.7850        0.00000
      26        12.8115        0.00000
      27        14.6016        0.00000
      28        14.6016        0.00000
      29        15.6935        0.00000
      30        15.8144        0.00000
      31        21.3241        0.00000
      32        23.0635        0.00000

 11/36 kpoint (Cartesian) = 0.00000 0.00000 0.156674 (0 pws)
       1       -47.4729      0.0625000
       2       -23.8454      0.0625000
       3       -23.6298      0.0625000
       4       -23.6298      0.0625000
       5       -8.21504      0.0625000
       6       -7.39112      0.0625000
       7       -7.06048      0.0625000
       8       -6.31105      0.0625000
       9       -6.31105      0.0625000
      10       -6.28155      0.0625000
      11       -6.23656      0.0625000
      12       -6.00770      0.0625000
      13        2.31927      0.0625000
      14        5.46956      0.0625000
      15        5.46956      0.0625000
      16        6.70380      0.0625000
      17        6.96702      0.0625000
      18        6.96702      0.0625000
      19        7.25104      0.0625000
      20        7.25527      0.0625000
      21        8.22997      0.0625000
      22        8.22997      0.0625000
      23        11.4250        0.00000
      24        13.3109        0.00000
      25        13.4564        0.00000
      26        13.4564        0.00000
      27        14.0171        0.00000
      28        15.0698        0.00000
      29        16.4657        0.00000
      30        16.4657        0.00000
      31        19.7834        0.00000
      32        22.1146        0.00000

 12/36 kpoint (Cartesian) = 0.195465 0.00000 0.156674 (0 pws)
       1       -47.4724      0.0625000
       2       -23.8427      0.0625000
       3       -23.6618      0.0625000
       4       -23.6283      0.0625000
       5       -8.01846      0.0625000
       6       -7.41221      0.0625000
       7       -7.03900      0.0625000
       8       -6.33168      0.0625000
       9       -6.30789      0.0625000
      10       -6.30303      0.0625000
      11       -6.16686      0.0625000
      12       -5.92170      0.0625000
      13        2.25543      0.0625000
      14        5.13662      0.0625000
      15        5.69836      0.0625000
      16        5.99550      0.0625000
      17        6.81913      0.0625000
      18        6.96248      0.0625000
      19        7.19378      0.0625000
      20        7.59358      0.0625000
      21        7.64372      0.0625000
      22        8.46408      0.0625000
      23        12.0489        0.00000
      24        12.6667        0.00000
      25        13.5085        0.00000
      26        13.8244        0.00000
      27        14.2131        0.00000
      28        14.8831        0.00000
      29        15.3973        0.00000
      30        16.2346        0.00000
      31        20.6568        0.00000
      32        22.4799        0.00000

 13/36 kpoint (Cartesian) = 0.130310 0.00000 0.156674 (0 pws)
       1       -47.4720      0.0625000
       2       -23.8401      0.0625000
       3       -23.6942      0.0625000
       4       -23.6269      0.0625000
       5       -7.83965      0.0625000
       6       -7.39337      0.0625000
       7       -7.01617      0.0625000
       8       -6.32983      0.0625000
       9       -6.32439      0.0625000
      10       -6.30467      0.0625000
      11       -6.09789      0.0625000
      12       -5.87470      0.0625000
      13        2.20772      0.0625000
      14        4.93136      0.0625000
      15        5.90264      0.0625000
      16        6.06752      0.0625000
      17        6.14755      0.0625000
      18        6.57032      0.0625000
      19        7.04948      0.0625000
      20        7.35400      0.0625000
      21        7.55400      0.0625000
      22        9.01578      0.0625000
      23        12.5373        0.00000
      24        12.8941        0.00000
      25        12.9418        0.00000
      26        13.5600        0.00000
      27        14.3324        0.00000
      28        14.9676        0.00000
      29        15.1266        0.00000
      30        16.0189        0.00000
      31        21.0421        0.00000
      32        21.9144        0.00000

 14/36 kpoint (Cartesian) = 0.0651551 0.00000 0.156674 (0 pws)
       1       -47.4724      0.0625000
       2       -23.8427      0.0625000
       3       -23.6618      0.0625000
       4       -23.6283      0.0625000
       5       -8.01846      0.0625000
       6       -7.41221      0.0625000
       7       -7.03900      0.0625000
       8       -6.33168      0.0625000
       9       -6.30789      0.0625000
      10       -6.30303      0.0625000
      11       -6.16686      0.0625000
      12       -5.92170      0.0625000
      13        2.25543      0.0625000
      14        5.13662      0.0625000
      15        5.69836      0.0625000
      16        5.99550      0.0625000
      17        6.81913      0.0625000
      18        6.96248      0.0625000
      19        7.19378      0.0625000
      20        7.59358      0.0625000
      21        7.64372      0.0625000
      22        8.46408      0.0625000
      23        12.0489        0.00000
      24        12.6667        0.00000
      25        13.5085        0.00000
      26        13.8244        0.00000
      27        14.2131        0.00000
      28        14.8831        0.00000
      29        15.3973        0.00000
      30        16.2346        0.00000
      31        20.6568        0.00000
      32        22.4799        0.00000

 15/36 kpoint (Cartesian) = 0.00000 0.195465 0.156674 (0 pws)
       1       -47.4724      0.0625000
       2       -23.8427      0.0625000
       3       -23.6618      0.0625000
       4       -23.6283      0.0625000
       5       -8.01846      0.0625000
       6       -7.41221      0.0625000
       7       -7.03900      0.0625000
       8       -6.33168      0.0625000
       9       -6.30789      0.0625000
      10       -6.30303      0.0625000
      11       -6.16686      0.0625000
      12       -5.92170      0.0625000
      13        2.25543      0.0625000
      14        5.13662      0.0625000
      15        5.69836      0.0625000
      16        5.99550      0.0625000
      17        6.81913      0.0625000
      18        6.96248      0.0625000
      19        7.19378      0.0625000
      20        7.59358      0.0625000
      21        7.64372      0.0625000
      22        8.46408      0.0625000
      23        12.0489        0.00000
      24        12.6667        0.00000
      25        13.5085        0.00000
      26        13.8244        0.00000
      27        14.2131        0.00000
      28        14.8831        0.00000
      29        15.3973        0.00000
      30        16.2346        0.00000
      31        20.6568        0.00000
      32        22.4799        0.00000

 16/36 kpoint (Cartesian) = 0.195465 0.195465 0.156674 (0 pws)
       1       -47.4715      0.0625000
       2       -23.8405      0.0625000
       3       -23.6605      0.0625000
       4       -23.6603      0.0625000
       5       -7.83176      0.0625000
       6       -7.43714      0.0625000
       7       -7.07769      0.0625000
       8       -6.32917      0.0625000
       9       -6.30177      0.0625000
      10       -6.26191      0.0625000
      11       -6.04198      0.0625000
      12       -5.88171      0.0625000
      13        2.23935      0.0625000
      14        5.12854      0.0625000
      15        5.23956      0.0625000
      16        5.69801      0.0625000
      17        6.46937      0.0625000
      18        6.56860      0.0625000
      19        7.23090      0.0625000
      20        7.71999      0.0625000
      21        8.29672      0.0625000
      22        8.31064      0.0625000
      23        12.1358        0.00000
      24        12.5745        0.00000
      25        12.9863        0.00000
      26        14.1059        0.00000
      27        14.3680        0.00000
      28        14.8286        0.00000
      29        15.4122        0.00000
      30        15.8173        0.00000
      31        20.9776        0.00000
      32        22.6567        0.00000

 17/36 kpoint (Cartesian) = 0.130310 0.195465 0.156674 (0 pws)
       1       -47.4706      0.0625000
       2       -23.8381      0.0625000
       3       -23.6926      0.0625000
       4       -23.6589      0.0625000
       5       -7.66608      0.0625000
       6       -7.44007      0.0625000
       7       -7.10600      0.0625000
       8       -6.31246      0.0625000
       9       -6.27476      0.0625000
      10       -6.19926      0.0625000
      11       -5.96416      0.0625000
      12       -5.85201      0.0625000
      13        2.20310      0.0625000
      14        5.02040      0.0625000
      15        5.13833      0.0625000
      16        5.28703      0.0625000
      17        6.14848      0.0625000
      18        6.72109      0.0625000
      19        7.14992      0.0625000
      20        7.54744      0.0625000
      21        8.08836      0.0625000
      22        8.45843      0.0625000
      23        12.4908        0.00000
      24        12.6273        0.00000
      25        12.8593        0.00000
      26        13.7836        0.00000
      27        14.2753        0.00000
      28        15.0291        0.00000
      29        15.6189        0.00000
      30        15.7629        0.00000
      31        21.2438        0.00000
      32        22.1683        0.00000

 18/36 kpoint (Cartesian) = 0.0651551 0.195465 0.156674 (0 pws)
       1       -47.4715      0.0625000
       2       -23.8405      0.0625000
       3       -23.6605      0.0625000
       4       -23.6603      0.0625000
       5       -7.83176      0.0625000
       6       -7.43714      0.0625000
       7       -7.07769      0.0625000
       8       -6.32917      0.0625000
       9       -6.30177      0.0625000
      10       -6.26191      0.0625000
      11       -6.04198      0.0625000
      12       -5.88171      0.0625000
      13        2.23935      0.0625000
      14        5.12854      0.0625000
      15        5.23956      0.0625000
      16        5.69801      0.0625000
      17        6.46937      0.0625000
      18        6.56860      0.0625000
      19        7.23090      0.0625000
      20        7.71999      0.0625000
      21        8.29672      0.0625000
      22        8.31064      0.0625000
      23        12.1358        0.00000
      24        12.5745        0.00000
      25        12.9863        0.00000
      26        14.1059        0.00000
      27        14.3680        0.00000
      28        14.8286        0.00000
      29        15.4122        0.00000
      30        15.8173        0.00000
      31        20.9776        0.00000
      32        22.6567        0.00000

 19/36 kpoint (Cartesian) = 0.00000 0.130310 0.156674 (0 pws)
       1       -47.4720      0.0625000
       2       -23.8401      0.0625000
       3       -23.6942      0.0625000
       4       -23.6269      0.0625000
       5       -7.83965      0.0625000
       6       -7.39337      0.0625000
       7       -7.01617      0.0625000
       8       -6.32983      0.0625000
       9       -6.32439      0.0625000
      10       -6.30467      0.0625000
      11       -6.09789      0.0625000
      12       -5.87470      0.0625000
      13        2.20772      0.0625000
      14        4.93136      0.0625000
      15        5.90264      0.0625000
      16        6.06752      0.0625000
      17        6.14755      0.0625000
      18        6.57032      0.0625000
      19        7.04948      0.0625000
      20        7.35400      0.0625000
      21        7.55400      0.0625000
      22        9.01578      0.0625000
      23        12.5373        0.00000
      24        12.8941        0.00000
      25        12.9418        0.00000
      26        13.5600        0.00000
      27        14.3324        0.00000
      28        14.9676        0.00000
      29        15.1266        0.00000
      30        16.0189        0.00000
      31        21.0421        0.00000
      32        21.9144        0.00000

 20/36 kpoint (Cartesian) = 0.195465 0.130310 0.156674 (0 pws)
       1       -47.4706      0.0625000
       2       -23.8381      0.0625000
       3       -23.6926      0.0625000
       4       -23.6589      0.0625000
       5       -7.66608      0.0625000
       6       -7.44007      0.0625000
       7       -7.10600      0.0625000
       8       -6.31246      0.0625000
       9       -6.27476      0.0625000
      10       -6.19926      0.0625000
      11       -5.96416      0.0625000
      12       -5.85201      0.0625000
      13        2.20310      0.0625000
      14        5.02040      0.0625000
      15        5.13833      0.0625000
      16        5.28703      0.0625000
      17        6.14848      0.0625000
      18        6.72109      0.0625000
      19        7.14992      0.0625000
      20        7.54744      0.0625000
      21        8.08836      0.0625000
      22        8.45843      0.0625000
      23        12.4908        0.00000
      24        12.6273        0.00000
      25        12.8593        0.00000
      26        13.7836        0.00000
      27        14.2753        0.00000
      28        15.0291        0.00000
      29        15.6189        0.00000
      30        15.7629        0.00000
      31        21.2438        0.00000
      32        22.1683        0.00000

 21/36 kpoint (Cartesian) = 0.130310 0.130310 0.156674 (0 pws)
       1       -47.4691      0.0625000
       2       -23.8361      0.0625000
       3       -23.6905      0.0625000
       4       -23.6905      0.0625000
       5       -7.48833      0.0625000
       6       -7.48833      0.0625000
       7       -7.18746      0.0625000
       8       -6.26712      0.0625000
       9       -6.24977      0.0625000
      10       -6.06235      0.0625000
      11       -5.84466      0.0625000
      12       -5.84466      0.0625000
      13        2.06758      0.0625000
      14        4.82487      0.0625000
      15        5.37027      0.0625000
      16        5.37027      0.0625000
      17        5.72470      0.0625000
      18        6.49337      0.0625000
      19        6.51026      0.0625000
      20        7.59243      0.0625000
      21        7.59243      0.0625000
      22        9.08286      0.0625000
      23        12.5992        0.00000
      24        12.5992        0.00000
      25        12.7070        0.00000
      26        13.6384        0.00000
      27        14.8847        0.00000
      28        14.8847        0.00000
      29        15.8085        0.00000
      30        15.8284        0.00000
      31        21.3272        0.00000
      32        22.6419        0.00000

 22/36 kpoint (Cartesian) = 0.0651551 0.130310 0.156674 (0 pws)
       1       -47.4706      0.0625000
       2       -23.8381      0.0625000
       3       -23.6926      0.0625000
       4       -23.6589      0.0625000
       5       -7.66608      0.0625000
       6       -7.44007      0.0625000
       7       -7.10600      0.0625000
       8       -6.31246      0.0625000
       9       -6.27476      0.0625000
      10       -6.19926      0.0625000
      11       -5.96416      0.0625000
      12       -5.85201      0.0625000
      13        2.20310      0.0625000
      14        5.02040      0.0625000
      15        5.13833      0.0625000
      16        5.28703      0.0625000
      17        6.14848      0.0625000
      18        6.72109      0.0625000
      19        7.14992      0.0625000
      20        7.54744      0.0625000
      21        8.08836      0.0625000
      22        8.45843      0.0625000
      23        12.4908        0.00000
      24        12.6273        0.00000
      25        12.8593        0.00000
      26        13.7836        0.00000
      27        14.2753        0.00000
      28        15.0291        0.00000
      29        15.6189        0.00000
      30        15.7629        0.00000
      31        21.2438        0.00000
      32        22.1683        0.00000

 23/36 kpoint (Cartesian) = 0.00000 0.0651551 0.156674 (0 pws)
       1       -47.4724      0.0625000
       2       -23.8427      0.0625000
       3       -23.6618      0.0625000
       4       -23.6283      0.0625000
       5       -8.01846      0.0625000
       6       -7.41221      0.0625000
       7       -7.03900      0.0625000
       8       -6.33168      0.0625000
       9       -6.30789      0.0625000
      10       -6.30303      0.0625000
      11       -6.16686      0.0625000
      12       -5.92170      0.0625000
      13        2.25543      0.0625000
      14        5.13662      0.0625000
      15        5.69836      0.0625000
      16        5.99550      0.0625000
      17        6.81913      0.0625000
      18        6.96248      0.0625000
      19        7.19378      0.0625000
      20        7.59358      0.0625000
      21        7.64372      0.0625000
      22        8.46408      0.0625000
      23        12.0489        0.00000
      24        12.6667        0.00000
      25        13.5085        0.00000
      26        13.8244        0.00000
      27        14.2131        0.00000
      28        14.8831        0.00000
      29        15.3973        0.00000
      30        16.2346        0.00000
      31        20.6568        0.00000
      32        22.4799        0.00000

 24/36 kpoint (Cartesian) = 0.195465 0.0651551 0.156674 (0 pws)
       1       -47.4715      0.0625000
       2       -23.8405      0.0625000
       3       -23.6605      0.0625000
       4       -23.6603      0.0625000
       5       -7.83176      0.0625000
       6       -7.43714      0.0625000
       7       -7.07769      0.0625000
       8       -6.32917      0.0625000
       9       -6.30177      0.0625000
      10       -6.26191      0.0625000
      11       -6.04198      0.0625000
      12       -5.88171      0.0625000
      13        2.23935      0.0625000
      14        5.12854      0.0625000
      15        5.23956      0.0625000
      16        5.69801      0.0625000
      17        6.46937      0.0625000
      18        6.56860      0.0625000
      19        7.23090      0.0625000
      20        7.71999      0.0625000
      21        8.29672      0.0625000
      22        8.31064      0.0625000
      23        12.1358        0.00000
      24        12.5745        0.00000
      25        12.9863        0.00000
      26        14.1059        0.00000
      27        14.3680        0.00000
      28        14.8286        0.00000
      29        15.4122        0.00000
      30        15.8173        0.00000
      31        20.9776        0.00000
      32        22.6567        0.00000

 25/36 kpoint (Cartesian) = 0.130310 0.0651551 0.156674 (0 pws)
       1       -47.4706      0.0625000
       2       -23.8381      0.0625000
       3       -23.6926      0.0625000
       4       -23.6589      0.0625000
       5       -7.66608      0.0625000
       6       -7.44007      0.0625000
       7       -7.10600      0.0625000
       8       -6.31246      0.0625000
       9       -6.27476      0.0625000
      10       -6.19926      0.0625000
      11       -5.96416      0.0625000
      12       -5.85201      0.0625000
      13        2.20310      0.0625000
      14        5.02040      0.0625000
      15        5.13833      0.0625000
      16        5.28703      0.0625000
      17        6.14848      0.0625000
      18        6.72109      0.0625000
      19        7.14992      0.0625000
      20        7.54744      0.0625000
      21        8.08836      0.0625000
      22        8.45843      0.0625000
      23        12.4908        0.00000
      24        12.6273        0.00000
      25        12.8593        0.00000
      26        13.7836        0.00000
      27        14.2753        0.00000
      28        15.0291        0.00000
      29        15.6189        0.00000
      30        15.7629        0.00000
      31        21.2438        0.00000
      32        22.1683        0.00000

 26/36 kpoint (Cartesian) = 0.0651551 0.0651551 0.156674 (0 pws)
       1       -47.4715      0.0625000
       2       -23.8405      0.0625000
       3       -23.6605      0.0625000
       4       -23.6603      0.0625000
       5       -7.83176      0.0625000
       6       -7.43714      0.0625000
       7       -7.07769      0.0625000
       8       -6.32917      0.0625000
       9       -6.30177      0.0625000
      10       -6.26191      0.0625000
      11       -6.04198      0.0625000
      12       -5.88171      0.0625000
      13        2.23935      0.0625000
      14        5.12854      0.0625000
      15        5.23956      0.0625000
      16        5.69801      0.0625000
      17        6.46937      0.0625000
      18        6.56860      0.0625000
      19        7.23090      0.0625000
      20        7.71999      0.0625000
      21        8.29672      0.0625000
      22        8.31064      0.0625000
      23        12.1358        0.00000
      24        12.5745        0.00000
      25        12.9863        0.00000
      26        14.1059        0.00000
      27        14.3680        0.00000
      28        14.8286        0.00000
      29        15.4122        0.00000
      30        15.8173        0.00000
      31        20.9776        0.00000
      32        22.6567        0.00000

 27/36 kpoint (Cartesian) = 0.00000 0.00000 0.104450 (0 pws)
       1       -47.4732      0.0312500
       2       -23.8466      0.0312500
       3       -23.6296      0.0312500
       4       -23.6296      0.0312500
       5       -8.13240      0.0312500
       6       -7.37926      0.0312500
       7       -7.08923      0.0312500
       8       -6.31290      0.0312500
       9       -6.31290      0.0312500
      10       -6.28142      0.0312500
      11       -6.24874      0.0312500
      12       -6.02359      0.0312500
      13        2.02191      0.0312500
      14        5.37382      0.0312500
      15        5.37382      0.0312500
      16        6.49273      0.0312500
      17        7.15466      0.0312500
      18        7.15466      0.0312500
      19        7.23460      0.0312500
      20        8.10431      0.0312500
      21        8.18524      0.0312500
      22        8.18524      0.0312500
      23        11.4273        0.00000
      24        12.1768        0.00000
      25        13.5349        0.00000
      26        13.5349        0.00000
      27        14.0404        0.00000
      28        15.5703        0.00000
      29        16.2225        0.00000
      30        16.2225        0.00000
      31        20.4238        0.00000
      32        23.1879        0.00000

 28/36 kpoint (Cartesian) = 0.195465 0.00000 0.104450 (0 pws)
       1       -47.4723      0.0625000
       2       -23.8441      0.0625000
       3       -23.6617      0.0625000
       4       -23.6280      0.0625000
       5       -7.97081      0.0625000
       6       -7.40458      0.0625000
       7       -7.03359      0.0625000
       8       -6.32221      0.0625000
       9       -6.31007      0.0625000
      10       -6.30323      0.0625000
      11       -6.18852      0.0625000
      12       -5.92272      0.0625000
      13        2.03760      0.0625000
      14        4.95619      0.0625000
      15        5.61301      0.0625000
      16        6.23934      0.0625000
      17        6.71324      0.0625000
      18        7.11535      0.0625000
      19        7.12611      0.0625000
      20        7.63557      0.0625000
      21        7.74249      0.0625000
      22        8.55588      0.0625000
      23        12.0167        0.00000
      24        12.8947        0.00000
      25        13.3935        0.00000
      26        13.5700        0.00000
      27        14.1168        0.00000
      28        15.2051        0.00000
      29        15.4802        0.00000
      30        16.0348        0.00000
      31        20.7849        0.00000
      32        23.5802        0.00000

 29/36 kpoint (Cartesian) = 0.130310 0.00000 0.104450 (0 pws)
       1       -47.4717      0.0312500
       2       -23.8417      0.0312500
       3       -23.6946      0.0312500
       4       -23.6266      0.0312500
       5       -7.84925      0.0312500
       6       -7.38019      0.0312500
       7       -6.96013      0.0312500
       8       -6.32487      0.0312500
       9       -6.32014      0.0312500
      10       -6.30725      0.0312500
      11       -6.10999      0.0312500
      12       -5.86979      0.0312500
      13        2.08989      0.0312500
      14        4.72604      0.0312500
      15        5.70488      0.0312500
      16        6.05135      0.0312500
      17        6.18489      0.0312500
      18        6.62876      0.0312500
      19        7.03622      0.0312500
      20        7.46621      0.0312500
      21        8.02201      0.0312500
      22        8.48860      0.0312500
      23        12.4525        0.00000
      24        12.9627        0.00000
      25        13.4923        0.00000
      26        13.6101        0.00000
      27        14.8548        0.00000
      28        14.9521        0.00000
      29        15.0052        0.00000
      30        15.8805        0.00000
      31        20.0304        0.00000
      32        23.0139        0.00000

 30/36 kpoint (Cartesian) = 0.00000 0.195465 0.104450 (0 pws)
       1       -47.4723      0.0625000
       2       -23.8441      0.0625000
       3       -23.6617      0.0625000
       4       -23.6280      0.0625000
       5       -7.97081      0.0625000
       6       -7.40458      0.0625000
       7       -7.03359      0.0625000
       8       -6.32221      0.0625000
       9       -6.31007      0.0625000
      10       -6.30323      0.0625000
      11       -6.18852      0.0625000
      12       -5.92272      0.0625000
      13        2.03760      0.0625000
      14        4.95619      0.0625000
      15        5.61301      0.0625000
      16        6.23934      0.0625000
      17        6.71324      0.0625000
      18        7.11535      0.0625000
      19        7.12611      0.0625000
      20        7.63557      0.0625000
      21        7.74249      0.0625000
      22        8.55588      0.0625000
      23        12.0167        0.00000
      24        12.8947        0.00000
      25        13.3935        0.00000
      26        13.5700        0.00000
      27        14.1168        0.00000
      28        15.2051        0.00000
      29        15.4802        0.00000
      30        16.0348        0.00000
      31        20.7849        0.00000
      32        23.5802        0.00000

 31/36 kpoint (Cartesian) = 0.195465 0.195465 0.104450 (0 pws)
       1       -47.4713      0.0625000
       2       -23.8426      0.0625000
       3       -23.6604      0.0625000
       4       -23.6603      0.0625000
       5       -7.80392      0.0625000
       6       -7.44112      0.0625000
       7       -7.05188      0.0625000
       8       -6.33043      0.0625000
       9       -6.29627      0.0625000
      10       -6.25368      0.0625000
      11       -6.05908      0.0625000
      12       -5.87239      0.0625000
      13        2.13186      0.0625000
      14        5.03261      0.0625000
      15        5.03308      0.0625000
      16        5.64649      0.0625000
      17        6.24692      0.0625000
      18        6.63339      0.0625000
      19        7.60452      0.0625000
      20        7.92277      0.0625000
      21        8.10354      0.0625000
      22        8.30339      0.0625000
      23        12.2169        0.00000
      24        12.6961        0.00000
      25        13.0742        0.00000
      26        14.0801        0.00000
      27        14.6841        0.00000
      28        14.7062        0.00000
      29        15.3768        0.00000
      30        15.9460        0.00000
      31        21.0272        0.00000
      32        23.1261        0.00000

 32/36 kpoint (Cartesian) = 0.130310 0.195465 0.104450 (0 pws)
       1       -47.4703      0.0625000
       2       -23.8407      0.0625000
       3       -23.6929      0.0625000
       4       -23.6590      0.0625000
       5       -7.67763      0.0625000
       6       -7.44293      0.0625000
       7       -7.05464      0.0625000
       8       -6.31130      0.0625000
       9       -6.26788      0.0625000
      10       -6.19669      0.0625000
      11       -5.95612      0.0625000
      12       -5.84299      0.0625000
      13        2.23391      0.0625000
      14        4.83325      0.0625000
      15        4.89022      0.0625000
      16        5.11705      0.0625000
      17        5.96666      0.0625000
      18        6.67302      0.0625000
      19        7.35603      0.0625000
      20        7.82298      0.0625000
      21        8.03263      0.0625000
      22        8.44283      0.0625000
      23        12.4555        0.00000
      24        12.7560        0.00000
      25        12.9209        0.00000
      26        14.2508        0.00000
      27        14.7617        0.00000
      28        15.0494        0.00000
      29        15.6447        0.00000
      30        15.8091        0.00000
      31        20.4428        0.00000
      32        22.4776        0.00000

 33/36 kpoint (Cartesian) = 0.0651551 0.195465 0.104450 (0 pws)
       1       -47.4713      0.0625000
       2       -23.8426      0.0625000
       3       -23.6604      0.0625000
       4       -23.6603      0.0625000
       5       -7.80392      0.0625000
       6       -7.44112      0.0625000
       7       -7.05188      0.0625000
       8       -6.33043      0.0625000
       9       -6.29627      0.0625000
      10       -6.25368      0.0625000
      11       -6.05908      0.0625000
      12       -5.87239      0.0625000
      13        2.13186      0.0625000
      14        5.03261      0.0625000
      15        5.03308      0.0625000
      16        5.64649      0.0625000
      17        6.24692      0.0625000
      18        6.63339      0.0625000
      19        7.60452      0.0625000
      20        7.92277      0.0625000
      21        8.10354      0.0625000
      22        8.30339      0.0625000
      23        12.2169        0.00000
      24        12.6961        0.00000
      25        13.0742        0.00000
      26        14.0801        0.00000
      27        14.6841        0.00000
      28        14.7062        0.00000
      29        15.3768        0.00000
      30        15.9460        0.00000
      31        21.0272        0.00000
      32        23.1261        0.00000

 34/36 kpoint (Cartesian) = 0.00000 0.130310 0.104450 (0 pws)
       1       -47.4717      0.0312500
       2       -23.8417      0.0312500
       3       -23.6946      0.0312500
       4       -23.6266      0.0312500
       5       -7.84925      0.0312500
       6       -7.38019      0.0312500
       7       -6.96013      0.0312500
       8       -6.32487      0.0312500
       9       -6.32014      0.0312500
      10       -6.30725      0.0312500
      11       -6.10999      0.0312500
      12       -5.86979      0.0312500
      13        2.08989      0.0312500
      14        4.72604      0.0312500
      15        5.70488      0.0312500
      16        6.05135      0.0312500
      17        6.18489      0.0312500
      18        6.62876      0.0312500
      19        7.03622      0.0312500
      20        7.46621      0.0312500
      21        8.02201      0.0312500
      22        8.48860      0.0312500
      23        12.4525        0.00000
      24        12.9627        0.00000
      25        13.4923        0.00000
      26        13.6101        0.00000
      27        14.8548        0.00000
      28        14.9521        0.00000
      29        15.0052        0.00000
      30        15.8805        0.00000
      31        20.0304        0.00000
      32        23.0139        0.00000

 35/36 kpoint (Cartesian) = 0.195465 0.130310 0.104450 (0 pws)
       1       -47.4703      0.0625000
       2       -23.8407      0.0625000
       3       -23.6929      0.0625000
       4       -23.6590      0.0625000
       5       -7.67763      0.0625000
       6       -7.44293      0.0625000
       7       -7.05464      0.0625000
       8       -6.31130      0.0625000
       9       -6.26788      0.0625000
      10       -6.19669      0.0625000
      11       -5.95612      0.0625000
      12       -5.84299      0.0625000
      13        2.23391      0.0625000
      14        4.83325      0.0625000
      15        4.89022      0.0625000
      16        5.11705      0.0625000
      17        5.96666      0.0625000
      18        6.67302      0.0625000
      19        7.35603      0.0625000
      20        7.82298      0.0625000
      21        8.03263      0.0625000
      22        8.44283      0.0625000
      23        12.4555        0.00000
      24        12.7560        0.00000
      25        12.9209        0.00000
      26        14.2508        0.00000
      27        14.7617        0.00000
      28        15.0494        0.00000
      29        15.6447        0.00000
      30        15.8091        0.00000
      31        20.4428        0.00000
      32        22.4776        0.00000

 36/36 kpoint (Cartesian) = 0.130310 0.130310 0.104450 (0 pws)
       1       -47.4686      0.0312500
       2       -23.8393      0.0312500
       3       -23.6905      0.0312500
       4       -23.6905      0.0312500
       5       -7.50329      0.0312500
       6       -7.50329      0.0312500
       7       -7.13665      0.0312500
       8       -6.26013      0.0312500
       9       -6.24959      0.0312500
      10       -6.07427      0.0312500
      11       -5.81791      0.0312500
      12       -5.81791      0.0312500
      13        2.23998      0.0312500
      14        4.75648      0.0312500
      15        5.00510      0.0312500
      16        5.00510      0.0312500
      17        5.72309      0.0312500
      18        5.96148      0.0312500
      19        6.17368      0.0312500
      20        8.14190      0.0312500
      21        8.14190      0.0312500
      22        9.07765      0.0312500
      23        12.4397        0.00000
      24        12.4397        0.00000
      25        13.0788        0.00000
      26        14.4636        0.00000
      27        15.1625        0.00000
      28        15.1625        0.00000
      29        15.8029        0.00000
      30        15.9892        0.00000
      31        21.5509        0.00000
      32        21.6429        0.00000

 EFERMI = 9.367580398023167 eV
 OUT.ABACUS/ final etot is -4416.315206574784 eV


 --------------------------------------------
 !FINAL_ETOT_IS -4416.315206574784 eV
 --------------------------------------------






  |CLASS_NAME---------|NAME---------------|TIME(Sec)-----|CALLS----|AVG------|PER%-------
                                      total         63.301         9       7.0   1.0e+02%
                 Driver         driver_line         63.259         1       63.    1.e+02%
            ORB_control      set_orb_tables         3.3916         1       3.4       5.4%
         ORB_gen_tables          gen_tables         3.3916         1       3.4       5.4%
          ORB_table_phi          init_Table         1.1817         1       1.2       1.9%
          ORB_table_phi      cal_ST_Phi12_R         1.1174       788    0.0014       1.8%
         ORB_table_beta     init_Table_Beta         2.0588         1       2.1       3.3%
         ORB_table_beta       VNL_PhiBeta_R         2.0299       542    0.0037       3.2%
              Potential            v_of_rho        0.17592        16     0.011      0.28%
          XC_Functional                v_xc        0.16242        16     0.010      0.26%
        ESolver_KS_LCAO                 Run         59.522         1       60.       94.%
            HSolverLCAO               solve         57.471        15       3.8       91.%
             HamiltLCAO            updateHk         39.748       540     0.074       63.%
           OperatorLCAO                init         39.746      1620     0.025       63.%
                   Veff        contributeHk         32.040       540     0.059       51.%
         Gint_interface            cal_gint         42.622        30       1.4       67.%
                 Gint_k        folding_vl_k        0.64041       540    0.0012       1.0%
                 Gint_k              Distri        0.17587       540   0.00033      0.28%
   Nonlocal<OperatorLCAO>        contributeHR         1.1830         1       1.2       1.9%
        LCAO_gen_fixedHbuild_Nonlocal_mu_new         1.1827         1       1.2       1.9%
           OperatorLCAO       folding_fixed         6.3370       540     0.012       10.%
               LCAO_nnr      folding_fixedH         6.3256       540     0.012       10.%
            HSolverLCAO     hamiltSolvePsiK         3.0200       540    0.0056       4.8%
              DiagoElpa          elpa_solve         2.8589       540    0.0053       4.5%
          ElecStateLCAO            psiToRho         14.701        15      0.98       23.%
              elecstate              cal_dm        0.22089        15     0.015      0.35%
           psiMulPsiMpi              pdgemm        0.21265       540   0.00039      0.34%
            LCAO_Charge            cal_dk_k         3.1160        15      0.21       4.9%
 ----------------------------------------------------------------------------------------

 CLASS_NAME---------|NAME---------------|MEMORY(MB)--------
                                         5.443e+04
        ORB_table_phi               Jl(x)          130.4
        ORB_table_phi         Table_SR&TR          9.178
        allocate_pvpR        pvpR_reduced          3.867
  LocalOrbital_Charge      Density_Matrix          3.867
       ORB_table_beta            Table_NR          3.172
         Charge_Pulay                Rrho          1.898
        init_meshball        meshball_pos          1.859
         Charge_Pulay               dRrho          1.661
         Charge_Pulay                drho          1.661
        Grid_Meshcell        index2normal          1.435
        Grid_Meshcell         index2ucell          1.435
 ----------------------------------------------------------

 Start  Time  : Tue Dec  6 09:50:46 2022
 Finish Time  : Tue Dec  6 09:51:50 2022
 Total  Time  : 0 h 1 mins 4 secs 
